# vtk DataFile Version 4.2
Tetrahedral Mesh
ASCII

DATASET UNSTRUCTURED_GRID
POINTS 6 double
0.036470462825508185 0.1019983997282766 0.08908745293889231 0.8908470749973096 0.1221199630529282 0.11340605219482994 0 1 0 1 1 0 0.11749818179901426 0.0029160728675788924 1.885182638632412 0.9606806246796386 -0.0021888213659102124 1.9138166741836167 

CELLS 3 15
4 5 2 4 0 4 3 2 5 0 4 1 0 3 5

CELL_TYPES 3
10
10
10


CELL_DATA 3

SCALARS strain_energy double 1
LOOKUP_TABLE default
16757.074135529772 28414.82364621194 16524.43212452181 

SCALARS ref_volume double 1
LOOKUP_TABLE default
0.16666666666666666 0.16666666666666666 0.16666666666666666 

POINT_DATA 6

VECTORS displacement double
0.036470462825508185 0.1019983997282766 0.08908745293889231 -0.10915292500269033 0.1221199630529282 0.11340605219482994 0 0 0 0 0 0 0.11749818179901426 0.0029160728675788924 -0.11481736136758793 -0.039319375320361435 -0.0021888213659102124 -0.08618332581638341 

VECTORS elastic_force double
45579.21717903243 127502.52300585705 111361.39851925128 -45465.88478231129 50867.64973110548 47244.64147808158 78275.1474090915 -128796.26885409698 -63135.196190768096 -78195.47442118436 -48054.511613189905 60095.65574529862 48957.05433795327 1215.0153399681542 -47840.33284146589 -49150.059722581536 -2734.4076096437916 -107726.16671039749 

SCALARS fixed char 1
LOOKUP_TABLE default
0 0 1 1 0 0 

VECTORS ref double
0 0 0 1 0 0 0 1 0 1 1 0 0 0 1 1 0 1 

