# vtk DataFile Version 4.2
Tetrahedral Mesh
ASCII

DATASET UNSTRUCTURED_GRID
POINTS 6 double
0.00319123582105671 0.0016363986116542351 0.07222614452585341 1.0027352958189657 0.002989036211231574 0.07014736758013287 0 1 0 1 1 0 0.007420490552362413 0.07034938478802412 1.071121401370028 1.0051884493914514 0.07257845892450719 1.0687118825345339 

CELLS 3 15
4 5 2 4 0 4 3 2 5 0 4 1 0 3 5

CELL_TYPES 3
10
10
10


CELL_DATA 3

SCALARS ref_volume double 1
LOOKUP_TABLE default
0.16666666666666666 0.16666666666666666 0.16666666666666666 

SCALARS strain_energy double 1
LOOKUP_TABLE default
26.772258705014245 16.188081402288248 4.296031004669994 

POINT_DATA 6

VECTORS displacement double
0.00319123582105671 0.0016363986116542351 0.07222614452585341 0.0027352958189657203 0.002989036211231574 0.07014736758013287 0 0 0 0 0 0 0.007420490552362413 0.07034938478802412 -0.9288785986299719 0.005188449391451414 0.07257845892450719 -0.9312881174654662 

VECTORS elastic_force double
2572.1839440319754 -9224.021282582382 -10599.154485281682 -3858.4745301629746 3669.3569288372855 5247.174277918601 -2788.5165740993507 -3377.065712649341 20885.947491367922 11514.284088606611 227.62684175213508 -11707.590674673533 -9663.438323572656 4436.7132079225385 -2272.365276177309 2223.9613951963947 4267.390016719764 -1554.0113331539987 

SCALARS fixed char 1
LOOKUP_TABLE default
0 0 1 1 0 0 

VECTORS ref double
0 0 0 1 0 0 0 1 0 1 1 0 0 0 1 1 0 1 

