# vtk DataFile Version 4.2
Tetrahedral Mesh
ASCII

DATASET UNSTRUCTURED_GRID
POINTS 6 double
0.06497198382215641 0.23891879889882847 0.16551839398476031 0.806592625612676 0.26173848279179857 0.18585623030121654 0 1 0 1 1 0 0.21050453871433814 0.0035706430115325406 1.837751502353118 0.9297066497184251 -0.019009394162770164 1.8622507156390506 

CELLS 3 15
4 5 2 4 0 4 3 2 5 0 4 1 0 3 5

CELL_TYPES 3
10
10
10


CELL_DATA 3

SCALARS strain_energy double 1
LOOKUP_TABLE default
11626.591261704054 13256.0116247851 12840.870453983494 

SCALARS ref_volume double 1
LOOKUP_TABLE default
0.16666666666666666 0.16666666666666666 0.16666666666666666 

POINT_DATA 6

VECTORS elastic_force double
-43084.07386649622 5950.00965511223 42992.0606827979 48481.48698639449 -69724.84686487471 -15516.480922316405 40269.079526893926 3063.9496032380266 -28868.97293479928 -41978.61919518464 39082.01012340335 49949.81638773427 -41357.76122349142 4887.329258548693 -1307.6715139649468 37669.88777188386 16741.548224572405 -47248.75169945153 

VECTORS displacement double
0.06497198382215641 0.23891879889882847 0.16551839398476031 -0.19340737438732403 0.26173848279179857 0.18585623030121654 0 0 0 0 0 0 0.21050453871433814 0.0035706430115325406 -0.16224849764688212 -0.07029335028157492 -0.019009394162770164 -0.13774928436094944 

VECTORS ref double
0 0 0 1 0 0 0 1 0 1 1 0 0 0 1 1 0 1 

SCALARS fixed char 1
LOOKUP_TABLE default
0 0 1 1 0 0 

