# vtk DataFile Version 4.2
Tetrahedral Mesh
ASCII

DATASET UNSTRUCTURED_GRID
POINTS 6 double
-0.00013077492116272558 0.0002859703447092276 -0.005827319668556659 0.9999656807123783 -0.00005165638284915726 -0.005389876802607078 0 1 0 1 1 0 -0.00028729265218976424 -0.0053056958102877865 0.9939807295979961 1.000144467684329 -0.005549910069976636 0.9944353950746789 

CELLS 3 15
4 5 2 4 0 4 3 2 5 0 4 1 0 3 5

CELL_TYPES 3
10
10
10


CELL_DATA 3

SCALARS strain_energy double 1
LOOKUP_TABLE default
0.6415112135798955 0.3449799741209607 0.47033126916426793 

SCALARS ref_volume double 1
LOOKUP_TABLE default
0.16666666666666666 0.16666666666666666 0.16666666666666666 

POINT_DATA 6

VECTORS ref double
0 0 0 1 0 0 0 1 0 1 1 0 0 0 1 1 0 1 

VECTORS displacement double
-0.00013077492116272558 0.0002859703447092276 -0.005827319668556659 -0.000034319287621654095 -0.00005165638284915726 -0.005389876802607078 0 0 0 0 0 0 -0.00028729265218976424 -0.0053056958102877865 -1.006019270402004 0.00014446768432885954 -0.005549910069976636 -1.005564604925321 

VECTORS elastic_force double
2165.5855141542143 -2767.940655957108 890.3561130663645 -645.0936672937617 1396.685486583703 -884.5941811366525 2611.205458302512 2895.7603938663005 -3944.8746968351743 -2142.334281248385 -1321.324283924227 3751.2141913246433 -3014.8078917197436 -607.1012450786059 5038.349151341153 1025.4448678051647 403.92030450993684 -4850.450577760334 

SCALARS fixed char 1
LOOKUP_TABLE default
0 0 1 1 0 0 

