# vtk DataFile Version 4.2
Tetrahedral Mesh
ASCII

DATASET UNSTRUCTURED_GRID
POINTS 6647 double
1.9499999284744263 -0.00000004371138828673793 -0.0000011682431022563833 1.8835549354553223 -0.00000004371138828673793 -0.388229638338089 1.6887489557266235 -0.00000004371138828673793 -0.7500008940696716 1.3788573741912842 -0.00000004371138828673793 -1.0606608390808105 0.974998950958252 -0.00000004371138828673793 -1.2990385293960571 0.5046961307525635 -0.00000004371138828673793 -1.448888897895813 -0.0000009065789186024631 -0.00000004371138828673793 -1.5 -0.504697859287262 -0.00000004371138828673793 -1.4488885402679443 -0.9750005602836609 -0.00000004371138828673793 -1.2990378141403198 -1.378859043121338 -0.00000004371138828673793 -1.060659646987915 -1.68874990940094 -0.00000004371138828673793 -0.7499994039535522 -1.88355553150177 -0.00000004371138828673793 -0.3882279396057129 -1.9499999284744263 -0.00000004371138828673793 0.0000005841215511281916 -1.8835551738739014 -0.00000004371138828673793 0.3882290720939636 -1.6887491941452026 -0.00000004371138828673793 0.7500003576278687 -1.3788578510284424 -0.00000004371138828673793 1.0606603622436523 -0.9749996662139893 -0.00000004371138828673793 1.299038290977478 -0.5046969056129456 -0.00000004371138828673793 1.4488887786865234 0.00000014722090213581396 -0.00000004371138828673793 1.5 0.5046971440315247 -0.00000004371138828673793 1.4488887786865234 0.9749999046325684 -0.00000004371138828673793 1.2990381717681885 1.3788580894470215 -0.00000004371138828673793 1.0606601238250732 1.6887494325637817 -0.00000004371138828673793 0.75 1.883555293083191 -0.00000004371138828673793 0.38822856545448303 1.862916350364685 -0.25000008940696716 -0.0000011160714166180696 1.799438714981079 -0.25000008940696716 -0.3708919882774353 1.6133322715759277 -0.25000008940696716 -0.7165071368217468 1.3172799348831177 -0.25000008940696716 -1.0132936239242554 0.9314572215080261 -0.25000008940696716 -1.241025686264038 0.48215728998184204 -0.25000008940696716 -1.3841840028762817 -0.0000008660927051096223 -0.25000008940696716 -1.43301260471344 -0.48215895891189575 -0.25000008940696716 -1.384183645248413 -0.9314587116241455 -0.25000008940696716 -1.2410250902175903 -1.3172814846038818 -0.25000008940696716 -1.0132924318313599 -1.6133333444595337 -0.25000008940696716 -0.7165057063102722 -1.7994391918182373 -0.25000008940696716 -0.370890349149704 -1.862916350364685 -0.25000008940696716 0.0000005580357083090348 -1.7994388341903687 -0.25000008940696716 0.37089142203330994 -1.6133325099945068 -0.25000008940696716 0.7165066599845886 -1.3172804117202759 -0.25000008940696716 1.0132931470870972 -0.9314578771591187 -0.25000008940696716 1.241025447845459 -0.48215797543525696 -0.25000008940696716 1.3841840028762817 0.00000014064627862353518 -0.25000008940696716 1.43301260471344 0.4821583032608032 -0.25000008940696716 1.3841838836669922 0.931458055973053 -0.25000008940696716 1.2410253286361694 1.3172807693481445 -0.25000008940696716 1.013292908668518 1.6133328676223755 -0.25000008940696716 0.71650630235672 1.7994389533996582 -0.25000008940696716 0.37089094519615173 1.625 -0.4330127239227295 -0.0000009735358617035672 1.5696290731430054 -0.4330127239227295 -0.32352471351623535 1.4072906970977783 -0.4330127239227295 -0.6250007152557373 1.1490477323532104 -0.4330127239227295 -0.883884072303772 0.8124991059303284 -0.4330127239227295 -1.0825321674346924 0.42058008909225464 -0.4330127239227295 -1.2074074745178223 -0.0000007554824037470098 -0.4330127239227295 -1.25 -0.420581579208374 -0.4330127239227295 -1.2074071168899536 -0.8125004172325134 -0.4330127239227295 -1.082531452178955 -1.1490490436553955 -0.4330127239227295 -0.883882999420166 -1.4072916507720947 -0.4330127239227295 -0.624999463558197 -1.5696296691894531 -0.4330127239227295 -0.32352328300476074 -1.625 -0.4330127239227295 0.0000004867679308517836 -1.5696293115615845 -0.4330127239227295 0.32352420687675476 -1.4072909355163574 -0.4330127239227295 0.6250002980232239 -1.1490482091903687 -0.4330127239227295 0.8838837146759033 -0.8124997615814209 -0.4330127239227295 1.0825319290161133 -0.4205807149410248 -0.4330127239227295 1.2074073553085327 0.0000001226840851131783 -0.4330127239227295 1.25 0.42058098316192627 -0.4330127239227295 1.2074072360992432 0.8124998807907104 -0.4330127239227295 1.0825318098068237 1.1490484476089478 -0.4330127239227295 0.8838834762573242 1.4072911739349365 -0.4330127239227295 0.625 1.5696293115615845 -0.4330127239227295 0.3235238194465637 1.2999999523162842 -0.5 -0.0000007788287348375889 1.255703330039978 -0.5 -0.2588197588920593 1.1258325576782227 -0.5 -0.5000005960464478 0.9192382097244263 -0.5 -0.7071072459220886 0.6499993205070496 -0.5 -0.8660256862640381 0.3364640772342682 -0.5 -0.965925931930542 -0.0000006043859457349754 -0.5 -1 -0.3364652395248413 -0.5 -0.9659256935119629 -0.6500003337860107 -0.5 -0.8660252094268799 -0.9192392826080322 -0.5 -0.7071064114570618 -1.12583327293396 -0.5 -0.4999995827674866 -1.2557036876678467 -0.5 -0.2588186264038086 -1.2999999523162842 -0.5 0.00000038941436741879443 -1.2557034492492676 -0.5 0.2588193714618683 -1.1258327960968018 -0.5 0.5000002384185791 -0.9192385077476501 -0.5 0.7071069478988647 -0.6499997973442078 -0.5 0.8660255074501038 -0.3364645838737488 -0.5 0.9659258723258972 0.00000009814726809054264 -0.5 1 0.3364647924900055 -0.5 0.9659258127212524 0.6499999165534973 -0.5 0.866025447845459 0.9192387461662292 -0.5 0.7071067690849304 1.1258329153060913 -0.5 0.5 1.2557035684585571 -0.5 0.258819043636322 0.9750000238418579 -0.4330127239227295 -0.0000005841216079716105 0.9417775273323059 -0.4330127239227295 -0.1941148340702057 0.8443744778633118 -0.4330127239227295 -0.3750004768371582 0.6894287467002869 -0.4330127239227295 -0.53033047914505 0.48749950528144836 -0.4330127239227295 -0.6495193243026733 0.2523480951786041 -0.4330127239227295 -0.7244445085525513 -0.000000453289487722941 -0.4330127239227295 -0.7500000596046448 -0.25234895944595337 -0.4330127239227295 -0.7244443297386169 -0.4875003397464752 -0.4330127239227295 -0.6495189666748047 -0.689429521560669 -0.4330127239227295 -0.5303298234939575 -0.8443750143051147 -0.4330127239227295 -0.3749997019767761 -0.9417778253555298 -0.4330127239227295 -0.19411398470401764 -0.9750000238418579 -0.4330127239227295 0.00000029206080398580525 -0.9417776465415955 -0.4330127239227295 0.194114550948143 -0.8443747162818909 -0.4330127239227295 0.3750002086162567 -0.689428985118866 -0.4330127239227295 0.530330240726471 -0.487499862909317 -0.4330127239227295 0.6495192050933838 -0.2523484528064728 -0.4330127239227295 0.7244444489479065 0.00000007361045817333434 -0.4330127239227295 0.7500000596046448 0.2523486018180847 -0.4330127239227295 0.7244443893432617 0.48749998211860657 -0.4330127239227295 0.649519145488739 0.6894291043281555 -0.4330127239227295 0.5303301215171814 0.8443747758865356 -0.4330127239227295 0.3750000298023224 0.9417776465415955 -0.4330127239227295 0.1941142976284027 0.7370834946632385 -0.25000008940696716 -0.00000044158602463539864 0.7119678854942322 -0.25000008940696716 -0.14674752950668335 0.6383328437805176 -0.25000008940696716 -0.2834939956665039 0.5211964249610901 -0.25000008940696716 -0.4009208679199219 0.3685413599014282 -0.25000008940696716 -0.4910255968570709 0.19077086448669434 -0.25000008940696716 -0.5476677417755127 -0.00000034267918636032846 -0.25000008940696716 -0.5669873356819153 -0.19077153503894806 -0.25000008940696716 -0.5476676225662231 -0.36854198575019836 -0.25000008940696716 -0.49102532863616943 -0.5211970210075378 -0.25000008940696716 -0.40092039108276367 -0.6383332014083862 -0.25000008940696716 -0.28349342942237854 -0.7119680643081665 -0.25000008940696716 -0.14674688875675201 -0.7370834946632385 -0.25000008940696716 0.00000022079301231769932 -0.711967945098877 -0.25000008940696716 0.14674730598926544 -0.6383329629898071 -0.25000008940696716 0.2834938168525696 -0.5211966037750244 -0.25000008940696716 0.40092068910598755 -0.3685416281223297 -0.25000008940696716 0.49102550745010376 -0.1907711625099182 -0.25000008940696716 0.5476677417755127 0.000000055648257557550096 -0.25000008940696716 0.5669873356819153 0.19077128171920776 -0.25000008940696716 0.5476676821708679 0.3685417175292969 -0.25000008940696716 0.491025447845459 0.521196722984314 -0.25000008940696716 0.400920569896698 0.6383330225944519 -0.25000008940696716 0.28349366784095764 0.711967945098877 -0.25000008940696716 0.14674712717533112 0.6499999761581421 -0.00000015099580252808664 -0.00000038941436741879443 0.627851665019989 -0.00000015099580252808664 -0.12940987944602966 0.5629162788391113 -0.00000015099580252808664 -0.2500002980232239 0.45961910486221313 -0.00000015099580252808664 -0.3535536229610443 0.3249996602535248 -0.00000015099580252808664 -0.43301284313201904 0.1682320386171341 -0.00000015099580252808664 -0.482962965965271 -0.0000003021929728674877 -0.00000015099580252808664 -0.5 -0.16823261976242065 -0.00000015099580252808664 -0.48296284675598145 -0.32500016689300537 -0.00000015099580252808664 -0.43301260471343994 -0.4596196413040161 -0.00000015099580252808664 -0.3535532057285309 -0.56291663646698 -0.00000015099580252808664 -0.2499997913837433 -0.6278518438339233 -0.00000015099580252808664 -0.1294093132019043 -0.6499999761581421 -0.00000015099580252808664 0.00000019470718370939721 -0.6278517246246338 -0.00000015099580252808664 0.12940968573093414 -0.5629163980484009 -0.00000015099580252808664 0.25000011920928955 -0.4596192538738251 -0.00000015099580252808664 0.3535534739494324 -0.3249998986721039 -0.00000015099580252808664 0.4330127537250519 -0.1682322919368744 -0.00000015099580252808664 0.4829629361629486 0.00000004907363404527132 -0.00000015099580252808664 0.5 0.16823239624500275 -0.00000015099580252808664 0.4829629063606262 0.32499995827674866 -0.00000015099580252808664 0.4330127239227295 0.4596193730831146 -0.00000015099580252808664 0.3535533845424652 0.5629164576530457 -0.00000015099580252808664 0.25 0.6278517842292786 -0.00000015099580252808664 0.129409521818161 0.73708
[...]
POINT_DATA 6647
VECTORS ref double
1.5 -0.00000004371138828673793 -0.0000011682431022563833 1.4488884210586548 -0.00000004371138828673793 -0.388229638338089 1.2990376949310303 -0.00000004371138828673793 -0.7500008940696716 1.0606595277786255 -0.00000004371138828673793 -1.0606608390808105 0.7499992251396179 -0.00000004371138828673793 -1.2990385293960571 0.38822782039642334 -0.00000004371138828673793 -1.448888897895813 -0.000000697368420787825 -0.00000004371138828673793 -1.5 -0.3882291316986084 -0.00000004371138828673793 -1.4488885402679443 -0.7500004768371582 -0.00000004371138828673793 -1.2990378141403198 -1.0606608390808105 -0.00000004371138828673793 -1.060659646987915 -1.2990384101867676 -0.00000004371138828673793 -0.7499994039535522 -1.448888897895813 -0.00000004371138828673793 -0.3882279396057129 -1.5 -0.00000004371138828673793 0.0000005841215511281916 -1.4488886594772339 -0.00000004371138828673793 0.3882290720939636 -1.2990379333496094 -0.00000004371138828673793 0.7500003576278687 -1.0606598854064941 -0.00000004371138828673793 1.0606603622436523 -0.7499997615814209 -0.00000004371138828673793 1.299038290977478 -0.3882283866405487 -0.00000004371138828673793 1.4488887786865234 0.00000011324685544877866 -0.00000004371138828673793 1.5 0.3882285952568054 -0.00000004371138828673793 1.4488887786865234 0.7499999403953552 -0.00000004371138828673793 1.2990381717681885 1.0606601238250732 -0.00000004371138828673793 1.0606601238250732 1.299038052558899 -0.00000004371138828673793 0.75 1.4488887786865234 -0.00000004371138828673793 0.38822856545448303 1.43301260471344 -0.25000008940696716 -0.0000011160714166180696 1.384183645248413 -0.25000008940696716 -0.3708919882774353 1.2410248517990112 -0.25000008940696716 -0.7165071368217468 1.0132923126220703 -0.25000008940696716 -1.0132936239242554 0.7165055871009827 -0.25000008940696716 -1.241025686264038 0.37089022994041443 -0.25000008940696716 -1.3841840028762817 -0.0000006662251621492032 -0.25000008940696716 -1.43301260471344 -0.3708915114402771 -0.25000008940696716 -1.384183645248413 -0.7165067195892334 -0.25000008940696716 -1.2410250902175903 -1.0132935047149658 -0.25000008940696716 -1.0132924318313599 -1.241025686264038 -0.25000008940696716 -0.7165057063102722 -1.3841840028762817 -0.25000008940696716 -0.370890349149704 -1.43301260471344 -0.25000008940696716 0.0000005580357083090348 -1.3841837644577026 -0.25000008940696716 0.37089142203330994 -1.2410250902175903 -0.25000008940696716 0.7165066599845886 -1.013292670249939 -0.25000008940696716 1.0132931470870972 -0.7165060639381409 -0.25000008940696716 1.241025447845459 -0.3708907663822174 -0.25000008940696716 1.3841840028762817 0.00000010818944673474107 -0.25000008940696716 1.43301260471344 0.3708910048007965 -0.25000008940696716 1.3841838836669922 0.7165062427520752 -0.25000008940696716 1.2410253286361694 1.013292908668518 -0.25000008940696716 1.013292908668518 1.2410253286361694 -0.25000008940696716 0.71650630235672 1.3841838836669922 -0.25000008940696716 0.37089094519615173 1.25 -0.4330127239227295 -0.0000009735358617035672 1.207406997680664 -0.4330127239227295 -0.32352471351623535 1.0825313329696655 -0.4330127239227295 -0.6250007152557373 0.8838829398155212 -0.4330127239227295 -0.883884072303772 0.6249993443489075 -0.4330127239227295 -1.0825321674346924 0.3235231637954712 -0.4330127239227295 -1.2074074745178223 -0.0000005811403411826177 -0.4330127239227295 -1.25 -0.3235242962837219 -0.4330127239227295 -1.2074071168899536 -0.6250003576278687 -0.4330127239227295 -1.082531452178955 -0.8838839530944824 -0.4330127239227295 -0.883882999420166 -1.0825320482254028 -0.4330127239227295 -0.624999463558197 -1.2074074745178223 -0.4330127239227295 -0.32352328300476074 -1.25 -0.4330127239227295 0.0000004867679308517836 -1.2074072360992432 -0.4330127239227295 0.32352420687675476 -1.0825315713882446 -0.4330127239227295 0.6250002980232239 -0.8838832378387451 -0.4330127239227295 0.8838837146759033 -0.6249998211860657 -0.4330127239227295 1.0825319290161133 -0.3235236406326294 -0.4330127239227295 1.2074073553085327 0.00000009437237480369731 -0.4330127239227295 1.25 0.3235238492488861 -0.4330127239227295 1.2074072360992432 0.6249999403953552 -0.4330127239227295 1.0825318098068237 0.8838834762573242 -0.4330127239227295 0.8838834762573242 1.0825316905975342 -0.4330127239227295 0.625 1.2074072360992432 -0.4330127239227295 0.3235238194465637 1 -0.5 -0.0000007788287348375889 0.9659256339073181 -0.5 -0.2588197588920593 0.8660250902175903 -0.5 -0.5000005960464478 0.707106351852417 -0.5 -0.7071072459220886 0.4999994933605194 -0.5 -0.8660256862640381 0.25881853699684143 -0.5 -0.965925931930542 -0.0000004649122899991198 -0.5 -1 -0.25881943106651306 -0.5 -0.9659256935119629 -0.5000002980232239 -0.5 -0.8660252094268799 -0.7071071863174438 -0.5 -0.7071064114570618 -0.8660256266593933 -0.5 -0.4999995827674866 -0.965925931930542 -0.5 -0.2588186264038086 -1 -0.5 0.00000038941436741879443 -0.9659257531166077 -0.5 0.2588193714618683 -0.8660252690315247 -0.5 0.5000002384185791 -0.7071065902709961 -0.5 0.7071069478988647 -0.49999985098838806 -0.5 0.8660255074501038 -0.25881892442703247 -0.5 0.9659258723258972 0.00000007549790126404332 -0.5 1 0.2588190734386444 -0.5 0.9659258127212524 0.4999999701976776 -0.5 0.866025447845459 0.7071067690849304 -0.5 0.7071067690849304 0.8660253882408142 -0.5 0.5 0.9659258127212524 -0.5 0.258819043636322 0.7500000596046448 -0.4330127239227295 -0.0000005841216079716105 0.7244442701339722 -0.4330127239227295 -0.1941148340702057 0.6495188474655151 -0.4330127239227295 -0.3750004768371582 0.5303298234939575 -0.4330127239227295 -0.53033047914505 0.37499964237213135 -0.4330127239227295 -0.6495193243026733 0.19411392509937286 -0.4330127239227295 -0.7244445085525513 -0.00000034868423881562194 -0.4330127239227295 -0.7500000596046448 -0.1941145956516266 -0.4330127239227295 -0.7244443297386169 -0.3750002682209015 -0.4330127239227295 -0.6495189666748047 -0.5303304195404053 -0.4330127239227295 -0.5303298234939575 -0.6495192646980286 -0.4330127239227295 -0.3749997019767761 -0.7244445085525513 -0.4330127239227295 -0.19411398470401764 -0.7500000596046448 -0.4330127239227295 0.00000029206080398580525 -0.7244443893432617 -0.4330127239227295 0.194114550948143 -0.6495190262794495 -0.4330127239227295 0.3750002086162567 -0.5303300023078918 -0.4330127239227295 0.530330240726471 -0.37499991059303284 -0.4330127239227295 0.6495192050933838 -0.19411420822143555 -0.4330127239227295 0.7244444489479065 0.00000005662343127710301 -0.4330127239227295 0.7500000596046448 0.1941143274307251 -0.4330127239227295 0.7244443893432617 0.375 -0.4330127239227295 0.649519145488739 0.5303301215171814 -0.4330127239227295 0.5303301215171814 0.6495190858840942 -0.4330127239227295 0.3750000298023224 0.7244443893432617 -0.4330127239227295 0.1941142976284027 0.5669873356819153 -0.25000008940696716 -0.00000044158602463539864 0.5476676225662231 -0.25000008940696716 -0.14674752950668335 0.49102526903152466 -0.25000008940696716 -0.2834939956665039 0.4009203612804413 -0.25000008940696716 -0.4009208679199219 0.28349336981773376 -0.25000008940696716 -0.4910255968570709 0.14674682915210724 -0.25000008940696716 -0.5476677417755127 -0.00000026359938942732697 -0.25000008940696716 -0.5669873356819153 -0.14674733579158783 -0.25000008940696716 -0.5476676225662231 -0.28349384665489197 -0.25000008940696716 -0.49102532863616943 -0.4009208083152771 -0.25000008940696716 -0.40092039108276367 -0.49102556705474854 -0.25000008940696716 -0.28349342942237854 -0.5476677417755127 -0.25000008940696716 -0.14674688875675201 -0.5669873356819153 -0.25000008940696716 0.00000022079301231769932 -0.5476676821708679 -0.25000008940696716 0.14674730598926544 -0.4910253584384918 -0.25000008940696716 0.2834938168525696 -0.40092048048973083 -0.25000008940696716 0.40092068910598755 -0.2834935784339905 -0.25000008940696716 0.49102550745010376 -0.14674705266952515 -0.25000008940696716 0.5476677417755127 0.000000042806352240631895 -0.25000008940696716 0.5669873356819153 0.1467471420764923 -0.25000008940696716 0.5476676821708679 0.28349363803863525 -0.25000008940696716 0.491025447845459 0.400920569896698 -0.25000008940696716 0.400920569896698 0.4910254180431366 -0.25000008940696716 0.28349366784095764 0.5476676821708679 -0.25000008940696716 0.14674712717533112 0.5 -0.00000015099580252808664 -0.00000038941436741879443 0.48296281695365906 -0.00000015099580252808664 -0.12940987944602966 0.43301254510879517 -0.00000015099580252808664 -0.2500002980232239 0.3535531759262085 -0.00000015099580252808664 -0.3535536229610443 0.2499997466802597 -0.00000015099580252808664 -0.43301284313201904 0.12940926849842072 -0.00000015099580252808664 -0.482962965965271 -0.0000002324561449995599 -0.00000015099580252808664 -0.5 -0.12940971553325653 -0.00000015099580252808664 -0.48296284675598145 -0.25000014901161194 -0.00000015099580252808664 -0.43301260471343994 -0.3535535931587219 -0.00000015099580252808664 -0.3535532057285309 -0.43301281332969666 -0.00000015099580252808664 -0.2499997913837433 -0.482962965965271 -0.00000015099580252808664 -0.1294093132019043 -0.5 -0.00000015099580252808664 0.00000019470718370939721 -0.48296287655830383 -0.00000015099580252808664 0.12940968573093414 -0.43301263451576233 -0.00000015099580252808664 0.25000011920928955 -0.35355329513549805 -0.00000015099580252808664 0.3535534739494324 -0.24999992549419403 -0.00000015099580252808664 0.4330127537250519 -0.12940946221351624 -0.00000015099580252808664 0.4829629361629486 0.00000003774895063202166 -0.00000015099580252808664 0.5 0.1294095367193222 -0.00000015099580252808664 0.4829629063606262 0.2499999850988388 -0.00000015099580252808664 0.4330127239227295 0.3535533845424652 -0.00000015099580252808664 0.3535533845424652 0.4330126941204071 -0.00000015099580252808664 0.25 0.4829629063606262 -0.00000015099580252808664 0.129409521818161 0.566987156867981 0.24999982118606567 -0.0000004415858825268515 0.5476674437522888 0.24999982118606567 -0.14674748480319977 0.49102509021759033 0.24999982118606567 -0.28349390625953674 0.40092021226882935 0.24999982118606567 -0.40092071890830994 0.2834932804107666 0.24999982118606567 -0.491025447845459 0.14674678444862366 0.24999982118606567 -0.5476676225662231 -0.0000002635993041621987 0.24999982118606567 -0.566987156867981 -0.14674729108810425 0.24999982118606567 -0.5476674437522888 -0.2834937572479248 0.24999982118606567 -0.4910251796245575 -0.40092068910598755 0.24999982118606567 -0.40092024207115173 -0.4910254180431366 0.24999982118606567 -0.2834933400154114 -0.5476676225662231 0.24999982118606567 -0.14674684405326843 -0.566987156867981 0.24999982118606567 0.00000022079294126342575 -0.5476675033569336 0.24999982118606567 0.14674726128578186 -0.4910252094268799 0.24999982118606567 0.2834937274456024 -0.4009203612804413 0.24999982118606567 0.400920569896698 -0.2834934890270233 0.24999982118606567 0.49102532863616943 -0.14674700796604156 0.24999982118606567 0.5476675629615784 0.00000004280634158249086 0.24999982118606567 0.566987156867981 0.14674709737300873 0.24999982118606567 0.5476675033569336 0.2834935486316681 0.24999982118606567 0.49102529883384705 0.40092045068740845 0.24999982118606567 0.40092045068740845 0.49102526903152466 0.24999982118606567 0.2834935784339905 0.5476675033569336 0.24999982118606567 0.14674706757068634 0.7499997615814209 0.43301257491111755 -0.0000005841213805979351 0.7244439721107483 0.43301257491111755 -0.19411475956439972 0.649518609046936 0.43301257491111755 -0.37500032782554626 0.5303295850753784 0.43301257491111755 -0.530330240726471 0.3749994933605194 0.43301257491111755 -0.6495190858840942 0.1941138356924057 0.43301257491111755 -0.7244442105293274 -0.0000003486840967070748 0.43301257491111755 -0.7499997615814209 -0.19411450624465942 0.43301257491111755 -0.7244440317153931 -0.37500008940696716 0.43301257491111755 -0.6495187282562256 -0.530330240726471 0.43301257491111755 -0.5303296446800232 -0.6495190262794495 0.43301257491111755 -0.3749995827674866 -0.7244442105293274 0.43301257491111755 -0.19411391019821167 -0.7499997615814209 0.43301257491111755 0.00000029206069029896753 -0.7244440913200378 0.43301257491111755 0.19411446154117584 -0.6495187282562256 0.43301257491111755 0.3750000596046448 -0.5303297638893127 0.43301257491111755 0.5303300619125366 -0.3749997615814209 0.43301257491111755 0.6495189070701599 -0.19411413371562958 0.43301257491111755 0.7244441509246826 0.00000005662340640810726 0.43301257491111755 0.7499997615814209 0.19411423802375793 0.43301257491111755 0.7244441509246826 0.37499985098838806 0.43301257491111755 0.6495189070701599 0.5303298830986023 0.43301257491111755 0.5303298830986023 0.6495188474655151 0.43301257491111755 0.37499988079071045 0.7244441509246826 0.43301257491111755 0.19411422312259674 0.9999997019767761 0.5 -0.0000007788285074639134 0.9659253358840942 0.5 -0.25881966948509216 0.8660248517990112 0.5 -0.5000004172325134 0.7071061134338379 0.5 -0.7071070075035095 0.49999934434890747 0.5 -0.866025447845459 0.25881844758987427 0.5 -0.9659256339073181 -0.00000046491214789057267 0.5 -0.9999997019767761 -0.2588193416595459 0.5 -0.965925395488739 -0.5000001192092896 0.5 -0.8660249710083008 -0.7071069478988647 0.5 -0.7071061730384827 -0.8660253882408142 0.5 -0.49999943375587463 -0.9659256339073181 0.5 -0.25881853699684143 -0.9999997019767761 0.5 0.0000003894142537319567 -0.9659254550933838 0.5 0.2588192820549011 -0.8660250306129456 0.5 0.5000000596046448 -0.707106351852417 0.5 0.7071067094802856 -0.4999997019767761 0.5 0.8660252690315247 -0.2588188350200653 0.5 0.9659255743026733 0.00000007549787994776125 0.5 0.9999997019767761 0.25881898403167725 0.5 0.9659255146980286 0.4999998211860657 0.5 0.8660252094268799 0.7071065306663513 0.5 0.7071065306663513 0.8660251498222351 0.5 0.49999985098838806 0.9659255146980286 0.5 0.25881895422935486 1.2499996423721313 0.43301287293434143 -0.0000009735356343298918 1.2074066400527954 0.43301287293434143 -0.3235245943069458 1.0825310945510864 0.43301287293434143 -0.625000536441803 0.8838827013969421 0.43301287293434143 -0.8838838338851929 0.6249991655349731 0.43301287293434143 -1.0825318098068237 0.32352307438850403 0.43301287293434143 -1.2074071168899536 -0.0000005811401706523611 0.43301287293434143 -1.2499996423721313 -0.32352420687675476 0.43301287293434143 -1.207406759262085 -0.6250001788139343 0.43301287293434143 -1.082531213760376 -0.8838837146759033 0.43301287293434143 -0.8838827610015869 -1.0825316905975342 0.43301287293434143 -0.6249992847442627 -1.2074071168899536 0.43301287293434143 -0.3235231935977936 -1.2499996423721313 0.43301287293434143 0.0000004867678171649459 -1.2074068784713745 0.43301287293434143 0.3235241174697876 -1.0825313329696655 0.43301287293434143 0.6250001192092896 -0.883882999420166 0.43301287293434143 0.8838834166526794 -0.6249996423721313 0.43301287293434143 1.0825315713882446 -0.32352355122566223 0.43301287293434143 1.207406997680664 0.00000009437234638198788 0.43301287293434143 1.2499996423721313 0.32352375984191895 0.43301287293434143 1.2074068784713745 0.6249997615814209 0.43301287293434143 1.082531452178955 0.8838832378387451 0.43301287293434143 0.8838832378387451 1.082531452178955 0.43301287293434143 0.6249998211860657 1.2074068784713745 0.43301287293434143 0.32352370023727417 1.4330124855041504 0.25000035762786865 -0.000001116071302931232 1.3841835260391235 0.25000035762786865 -0.3708919584751129 1.2410247325897217 0.25000035762786865 -0.716507077217102 1.0132921934127808 0.25000035762786865 -1.0132935047149658 0.7165055274963379 0.25000035762786865 -1.2410255670547485 0.37089020013809204 0.25000035762786865 -1.3841838836669922 -0.0000006662251053057844 0.25000035762786865 -1.4330124855041504 -0.3708914816379547 0.25000035762786865 -1.3841835260391235 -0.7165066599845886 0.25000035762786865 -1.2410249710083008 -1.0132933855056763 0.25000035762786865 -1.0132923126220703 -1.2410255670547485 0.25000035762786865 -0.7165056467056274 -1.3841838836669922 0.25000035762786865 -0.3708903193473816 -1.4330124855041504 0.25000035762786865 0.000000558035651465616 -1.384183645248413 0.25000035762786865 0.37089139223098755 -1.2410249710083008 0.25000035762786865 0.7165066003799438 -1.0132925510406494 0.25000035762786865 1.0132930278778076 -0.7165060043334961 0.25000035762786865 1.2410253286361694 -0.370890736579895 0.25000035762786865 1.3841838836669922 0.00000010818943252388635 0.25000035762786865 1.4330124855041504 0.3708909749984741 0.25000035762786865 1.3841837644577026 0.7165061831474304 0.25000035762786865 1.2410253286361694 1.0132927894592285 0.25000035762786865 1.0132927894592285 1.2410252094268799 0.25000035762786865 0.7165062427520752 1.3841837644577026 0.25000035762786865 0.37089091539382935 -0.8287937045097351 -0.45837992429733276 -0.12060543149709702 0.12060533463954926 0.4583798050880432 -0.8287933468818665 0.30994874238967896 -0.45837992429733276 -0.7780594229698181 -0.44330620765686035 0.46625086665153503 1.0246734619140625 -1.380476474761963 0.08228009939193726 0.4962717890739441 1.0406795740127563 0.32239097356796265 -0.8597042560577393 -0.8287932872772217 0.4583798050880432 -0.1206054836511612 0.10784000903367996 -0.29852232336997986 0.6013121604919434 1.024673581123352 -0.46625080704689026 0.44330650568008423 0.5746715068817139 -0.29852232336997986 -0.20726431906223297 -0.6574530601501465 0.4583798348903656 0.518844485282898 -1.0246732234954834 0.4662508964538574 0.443306565284729 0.5188445448875427 -0.45837992429733276 0.6574535369873047 0.518843948841095 0.4583798050880432 -0.6574535369873047 -0.39404815435409546 -0.29852229356765747 0.46683168411254883 0.6495545506477356 -0.34596821665763855 -0.10179012268781662 0.6037657856941223 -0.3080771565437317 -0.16177904605865479 1.4420918226242065 -0.12500005960464478 -0.1854465752840042 1.4085980653762817 -0.25000008940696716 -0.18544650077819824 1.4665062427520752 -0.12500008940696716 -0.000001149362105934415 1.3449565172195435 -0.12500005960464478 -0.5523684024810791 1.3126041889190674 -0.25000008940696716 -0.5436995625495911 1.4165360927581787 -0.1250000149011612 -0.37956082820892334 1.0369758605957031 -0.12500005960464478 -1.0369772911071777 1.127158522605896 -0.25000008940696716 -0.8649002909660339 1.1508421897888184 -0.12500007450580597 -0.8885839581489563 0.7332524061203003 -0.12500005960464478 -1.2700321674346924 0.8648989796638489 -0.25000011920928955 -1.127159595489502 0.8816457986831665 -0.1250000149011612 -1.1561660766601563 0.5604446530342102 -0.12500005960464478 -1.3416112661361694 0.5436978936195374 -0.2500000596046448 -1.3126047849655151 0.1941135823726654 -0.12500005960464478 -1.4409507513046265 0.18544481694698334 -0.25000008940696716 -1.4085983037948608 0.3795590400695801 -0.12500005960464478 -1.4165364503860474 -0.37956032156944275 -0.12500005960464478 -1.4165360927581787 -0.18544603884220123 -0.25000008940696716 -1.4085981845855713 -0.19411486387252808 -0.12500004470348358 -1.440950632095337 -0.7332535982131958 -0.12500005960464478 -1.270031452178955 -0.5436991453170776 -0.2500000596046448 -1.3126044273376465 -0.56044602394104 -0.12500005960464478 -1.3416106700897217 -0.881646990776062 -0.12500005960464478 -1.1561650037765503 -0.8649001717567444 -0.25000008940696716 -1.127158761024475 -1.2700320482254028 -0.1250000298023224 -0.7332525253295898 -1.127159595489502 -0.25000008940696716 -0.8648990392684937 -1.1561659574508667 -0.12500005960464478 -0.881645917892456 -1.4165363311767578 -0.12500004470348358 -0.37955915927886963 -1.3126049041748047 -0.2500000298023224 -0.5436980128288269 -1.3449573516845703 -0.1250000149011612 -0.5523668527603149 -1.4665062427520752 -0.12500008940696716 0.0000005782834477940924 -1.4085983037948608 -0.25000008940696716 -0.1854448914527893 -1.442091941833496 -0.12500007450580597 -0.18544484674930573 -1.442091941833496 -0.1250000298023224 0.18544597923755646 -1.4085981845855713 -0.25000008940696716 0.18544600903987885 -1.270031452178955 -0.12500005960464478 0.7332534790039063 -1.3126044273376465 -0.2500000596046448 0.5436990857124329 